 *******************************************************************************
 **                            MOPAC2002 (c) Fujitsu                          **
 *******************************************************************************

                              PM5 CALCULATION RESULTS


 *******************************************************************************
 *                  MOPAC2002 Version 1.00     CALC.'D. Thu Aug  9 15:51:55 2001
 *  PM5      - THE PM5 HAMILTONIAN TO BE USED
 *  SYMMETRY - SYMMETRY CONDITIONS TO BE IMPOSED
 *
 *
 *
 *                 CHARGE ON SYSTEM =     3
 *
 *
 *
 *  OPEN(N,N)- THERE ARE 1 ELECTRONS IN 6 LEVELS
 *  T=       - A TIME OF 86400.0 SECONDS REQUESTED
 *  DUMP=N   - RESTART FILE WRITTEN EVERY  7200.000 SECONDS
 *  ALLVEC   - PRINT ALL EIGENVECTORS
 *  MECI     - M.E.C.I. WORKING TO BE PRINTED
 *************************************************************************020000



     PARAMETER DEPENDENCE DATA

        REFERENCE ATOM      FUNCTION NO.    DEPENDENT ATOM(S)
            2                  1               3    4    5    6    7
            8                  1               9   10   11   12   13   14   15
                                              16   17   18
            8                  1              19
            8                  2               9   10   11   12   13   14   15
                                              16   17   18
            8                  2              19

             DESCRIPTIONS OF THE FUNCTIONS USED

   1      BOND LENGTH    IS SET EQUAL TO THE REFERENCE BOND LENGTH   
   2      BOND ANGLE     IS SET EQUAL TO THE REFERENCE BOND ANGLE    
  ALLVECS CHARGE=3 OPEN(1,6) MECI SYMMETRY PM5
 Ti(III)(H2O)6 d1
 H=80 ROOT=1,2,AG HR=DUMMY HWT=5
  ATOM    CHEMICAL     BOND LENGTH    BOND ANGLE    TWIST ANGLE 
 NUMBER    SYMBOL      (ANGSTROMS)    (DEGREES)     (DEGREES) 
   (I)                   NA:I          NB:NA:I       NC:NB:NA:I       NA    NB    NC 
    1       Ti            0.000000      0.000000       0.000000                      
    2        O            1.969599  *   0.000000       0.000000        1             
    3        O            1.969599     90.000000       0.000000        1     2       
    4        O            1.969599     90.000000      90.000000        1     2     3 
    5        O            1.969599     90.000000     180.000000        1     2     3 
    6        O            1.969599     90.000000     -90.000000        1     2     3 
    7        O            1.969599    180.000000       0.000000        1     2     3 
    8        H            0.955156  * 124.202105  *    0.000000        2     1     3 
    9        H            0.955156    124.202105     180.000000        2     1     3 
   10        H            0.955156    124.202105       0.000000        7     1     3 
   11        H            0.955156    124.202105     180.000000        7     1     3 
   12        H            0.955156    124.202105      90.000000        4     1     3 
   13        H            0.955156    124.202105     -90.000000        4     1     3 
   14        H            0.955156    124.202105      90.000000        6     1     3 
   15        H            0.955156    124.202105     -90.000000        6     1     3 
   16        H            0.955156    124.202105      90.000000        3     1     2 
   17        H            0.955156    124.202105     -90.000000        3     1     2 
   18        H            0.955156    124.202105      90.000000        5     1     2 
   19        H            0.955156    124.202105     -90.000000        5     1     2 

      THERE ARE   24 DOUBLY FILLED LEVELS


      RHF CALCULATION, NO. OF DOUBLY OCCUPIED LEVELS =   24

                       NO. OF LEVELS WITH OCCUPANCY 0.167  =    6
 
    Memory needed:    64256680 bytes
 Memory available:   134217728 bytes
 
  H: (PM5):                                                                     
  O: (PM5):                                                                     
 Ti: (PM5):                                                                     

           EMPIRICAL FORMULA: H12 O6 Ti 



      MOLECULAR POINT GROUP   :   Th  

 -------------------------------------------------------------------------------
  ALLVECS CHARGE=3 OPEN(1,6) MECI SYMMETRY PM5
 Ti(III)(H2O)6 d1
 H=80 ROOT=1,2,AG HR=DUMMY HWT=5


     GRADIENTS WERE INITIALLY ACCEPTABLY SMALL                
     SCF FIELD WAS ACHIEVED                                   


                                  PM5  CALCULATION
                                                       MOPAC2002 Version 1.00
                                                       Thu Aug  9 15:52:02 2001




          FINAL HEAT OF FORMATION =        281.83869 KCAL =       1179.21309 KJ


          TOTAL ENERGY            =      -1897.58671 EV  STATE:  DOUBLET Tg  
          ELECTRONIC ENERGY       =      -7576.58703 EV  POINT GROUP:     Th  
          CORE-CORE REPULSION     =       5679.00032 EV

          IONIZATION POTENTIAL    =         14.32320
          NO. OF FILLED LEVELS    =        24
          AND NO. OF OPEN LEVELS  =         6
          MOLECULAR WEIGHT        =    155.991

          MOLECULAR DIMENSIONS (Angstroms)

            Atom       Atom       Distance
            H    10    H     9     5.25609
            H    14    H    12     5.03546
            H    19    H    17     4.90887


          SCF CALCULATIONS =                1
          COMPUTATION TIME =           2.65 SECONDS
          WALL CLOCK TIME  =              8 SECONDS




  ATOM    CHEMICAL     BOND LENGTH    BOND ANGLE    TWIST ANGLE 
 NUMBER    SYMBOL      (ANGSTROMS)    (DEGREES)     (DEGREES) 
   (I)                   NA:I          NB:NA:I       NC:NB:NA:I       NA    NB    NC 
    1       Ti            0.000000      0.000000       0.000000                      
    2        O            1.969599  *   0.000000       0.000000        1             
    3        O            1.969599     90.000000       0.000000        1     2       
    4        O            1.969599     90.000000      90.000000        1     2     3 
    5        O            1.969599     90.000000     180.000000        1     2     3 
    6        O            1.969599     90.000000     -90.000000        1     2     3 
    7        O            1.969599    180.000000       0.000000        1     2     3 
    8        H            0.955156  * 124.202105  *    0.000000        2     1     3 
    9        H            0.955156    124.202105     180.000000        2     1     3 
   10        H            0.955156    124.202105       0.000000        7     1     3 
   11        H            0.955156    124.202105     180.000000        7     1     3 
   12        H            0.955156    124.202105      90.000000        4     1     3 
   13        H            0.955156    124.202105     -90.000000        4     1     3 
   14        H            0.955156    124.202105      90.000000        6     1     3 
   15        H            0.955156    124.202105     -90.000000        6     1     3 
   16        H            0.955156    124.202105      90.000000        3     1     2 
   17        H            0.955156    124.202105     -90.000000        3     1     2 
   18        H            0.955156    124.202105      90.000000        5     1     2 
   19        H            0.955156    124.202105     -90.000000        5     1     2 


      MOLECULAR POINT GROUP   :   Th  


                EIGENVECTORS  


   Root No.     1       2       3       4       5       6       7       8

              1tu     1tu     1tu     1ag     1eg     1eg     2ag     2tu  

            -49.564 -49.564 -49.564 -49.553 -47.454 -47.454 -31.879 -30.823
  
  S  Ti   1  0.0000  0.0000  0.0000  0.2701  0.0000  0.0000  0.5232  0.0000
  Px Ti   1 -0.0049 -0.0396 -0.2603  0.0000  0.0000  0.0000  0.0000 -0.0022
  Py Ti   1  0.2633  0.0043 -0.0056  0.0000  0.0000  0.0000  0.0000  0.0018
  Pz Ti   1 -0.0051  0.2604 -0.0396  0.0000  0.0000  0.0000  0.0000  0.1952
  x2 Ti   1  0.0000  0.0000  0.0000  0.0000 -0.0967  0.0721  0.0000  0.0000
  xz Ti   1  0.0000  0.0000  0.0000  0.0000  0.0000  0.0000  0.0000  0.0000
  z2 Ti   1  0.0000  0.0000  0.0000  0.0000 -0.0721 -0.0967  0.0000  0.0000
  yz Ti   1  0.0000  0.0000  0.0000  0.0000  0.0000  0.0000  0.0000  0.0000
  xy Ti   1  0.0000  0.0000  0.0000  0.0000  0.0000  0.0000  0.0000  0.0000
  S   O   2 -0.0116 -0.0934 -0.6131  0.3561 -0.2046  0.4817 -0.0126  0.0005
  Px  O   2 -0.0009 -0.0069 -0.0453  0.0033 -0.0190  0.0470 -0.3304  0.0017
  Py  O   2  0.0263  0.0004 -0.0006  0.0000  0.0000  0.0000  0.0000  0.0050
  Pz  O   2 -0.0005  0.0231 -0.0035  0.0000  0.0000  0.0000  0.0000  0.0700
  S   O   3  0.6200  0.0101 -0.0133  0.3561  0.5195 -0.0637 -0.0126 -0.0004
  Px  O   3 -0.0004 -0.0035 -0.0231  0.0000  0.0000  0.0000  0.0000 -0.0008
  Py  O   3  0.0458  0.0007 -0.0010  0.0033  0.0502 -0.0071 -0.3304 -0.0013
  Pz  O   3 -0.0005  0.0260 -0.0040  0.0000  0.0000  0.0000  0.0000  0.5455
  S   O   4  0.0120 -0.6131  0.0931  0.3561 -0.3149 -0.4181 -0.0126  0.0430
  Px  O   4 -0.0005 -0.0040 -0.0260  0.0000  0.0000  0.0000  0.0000 -0.0062
  Py  O   4  0.0234  0.0004 -0.0005  0.0000  0.0000  0.0000  0.0000  0.0006
  Pz  O   4 -0.0009  0.0453 -0.0069 -0.0033  0.0313  0.0399  0.3304 -0.1459
  S   O   5 -0.6200 -0.0101  0.0133  0.3561  0.5195 -0.0637 -0.0126  0.0004
  Px  O   5 -0.0004 -0.0035 -0.0231  0.0000  0.0000  0.0000  0.0000 -0.0008
  Py  O   5  0.0458  0.0007 -0.0010 -0.0033 -0.0502  0.0071  0.3304 -0.0013
  Pz  O   5 -0.0005  0.0260 -0.0040  0.0000  0.0000  0.0000  0.0000  0.5455
  S   O   6 -0.0120  0.6131 -0.0931  0.3561 -0.3149 -0.4181 -0.0126 -0.0430
  Px  O   6 -0.0005 -0.0040 -0.0260  0.0000  0.0000  0.0000  0.0000 -0.0062
  Py  O   6  0.0234  0.0004 -0.0005  0.0000  0.0000  0.0000  0.0000  0.0006
  Pz  O   6 -0.0009  0.0453 -0.0069  0.0033 -0.0313 -0.0399 -0.3304 -0.1459
  S   O   7  0.0116  0.0934  0.6131  0.3561 -0.2046  0.4817 -0.0126 -0.0005
  Px  O   7 -0.0009 -0.0069 -0.0453 -0.0033  0.0190 -0.0470  0.3304  0.0017
  Py  O   7  0.0263  0.0004 -0.0006  0.0000  0.0000  0.0000  0.0000  0.0050
  Pz  O   7 -0.0005  0.0231 -0.0035  0.0000  0.0000  0.0000  0.0000  0.0700
  S   H   8  0.0109 -0.0293 -0.1940  0.1176 -0.0616  0.1490 -0.0765  0.0030
  S   H   9 -0.0182 -0.0297 -0.1934  0.1176 -0.0616  0.1490 -0.0765 -0.0021
  S   H  10  0.0182  0.0297  0.1934  0.1176 -0.0616  0.1490 -0.0765  0.0021
  S   H  11 -0.0109  0.0293  0.1940  0.1176 -0.0616  0.1490 -0.0765 -0.0030
  S   H  12  0.0035 -0.1959  0.0150  0.1176 -0.0982 -0.1279 -0.0765  0.0386
  S   H  13  0.0041 -0.1915  0.0438  0.1176 -0.0982 -0.1279 -0.0765  0.0448
  S   H  14 -0.0035  0.1959 -0.0150  0.1176 -0.0982 -0.1279 -0.0765 -0.0386
  S   H  15 -0.0041  0.1915 -0.0438  0.1176 -0.0982 -0.1279 -0.0765 -0.0448
  S   H  16  0.1962 -0.0112 -0.0020  0.1176  0.1598 -0.0211 -0.0765 -0.2758
  S   H  17  0.1956  0.0176 -0.0064  0.1176  0.1598 -0.0211 -0.0765  0.2750
  S   H  18 -0.1962  0.0112  0.0020  0.1176  0.1598 -0.0211 -0.0765  0.2758
  S   H  19 -0.1956 -0.0176  0.0064  0.1176  0.1598 -0.0211 -0.0765 -0.2750


   Root No.     9      10      11      12      13      14      15      16

              2tu     2tu     1tg     1tg     1tg     2eg     2eg     3tu  

            -30.823 -30.823 -30.559 -30.559 -30.559 -29.469 -29.469 -27.685
  
  S  Ti   1  0.0000  0.0000  0.0000  0.0000  0.0000  0.0000  0.0000  0.0000
  Px Ti   1  0.1944 -0.0179  0.0000  0.0000  0.0000  0.0000  0.0000  0.0111
  Py Ti   1  0.0179  0.1944  0.0000  0.0000  0.0000  0.0000  0.0000  0.2436
  Pz Ti   1  0.0020 -0.0020  0.0000  0.0000  0.0000  0.0000  0.0000  0.0122
  x2 Ti   1  0.0000  0.0000  0.0000  0.0000  0.0000 -0.3172 -0.3521  0.0000
  xz Ti   1  0.0000  0.0000 -0.0016  0.1620 -0.0047  0.0000  0.0000  0.0000
  z2 Ti   1  0.0000  0.0000  0.0000  0.0000  0.0000 -0.3521  0.3172  0.0000
  yz Ti   1  0.0000  0.0000  0.1620  0.0017  0.0014  0.0000  0.0000  0.0000
  xy Ti   1  0.0000  0.0000  0.0014 -0.0047 -0.1620  0.0000  0.0000  0.0000
  S   O   2 -0.0429  0.0039  0.0000  0.0000  0.0000 -0.0222 -0.0885  0.0047
  Px  O   2 -0.1453  0.0134  0.0000  0.0000  0.0000  0.0989  0.4520 -0.0263
  Py  O   2  0.0500  0.5433  0.0050 -0.0163 -0.5632  0.0000  0.0000 -0.1547
  Pz  O   2  0.0007 -0.0007 -0.0009  0.0855 -0.0025  0.0000  0.0000  0.0082
  S   O   3 -0.0039 -0.0429  0.0000  0.0000  0.0000  0.0877  0.0250  0.1035
  Px  O   3  0.0697 -0.0064  0.0008 -0.0025 -0.0855  0.0000  0.0000  0.0074
  Py  O   3 -0.0134 -0.1453  0.0000  0.0000  0.0000 -0.4408 -0.1404 -0.5786
  Pz  O   3  0.0057 -0.0056  0.5634  0.0058  0.0049  0.0000  0.0000 -0.0078
  S   O   4  0.0004 -0.0004  0.0000  0.0000  0.0000 -0.0655  0.0635 -0.0052
  Px  O   4  0.5433 -0.0500  0.0056 -0.5632  0.0163  0.0000  0.0000 -0.0070
  Py  O   4  0.0064  0.0697 -0.0856 -0.0009 -0.0007  0.0000  0.0000  0.1630
  Pz  O   4 -0.0015  0.0015  0.0000  0.0000  0.0000 -0.3420  0.3116 -0.0290
  S   O   5  0.0039  0.0429  0.0000  0.0000  0.0000  0.0877  0.0250 -0.1035
  Px  O   5  0.0697 -0.0064 -0.0008  0.0025  0.0855  0.0000  0.0000  0.0074
  Py  O   5 -0.0134 -0.1453  0.0000  0.0000  0.0000  0.4408  0.1404 -0.5786
  Pz  O   5  0.0057 -0.0056 -0.5634 -0.0058 -0.0049  0.0000  0.0000 -0.0078
  S   O   6 -0.0004  0.0004  0.0000  0.0000  0.0000 -0.0655  0.0635  0.0052
  Px  O   6  0.5433 -0.0500 -0.0056  0.5632 -0.0163  0.0000  0.0000 -0.0070
  Py  O   6  0.0064  0.0697  0.0856  0.0009  0.0007  0.0000  0.0000  0.1630
  Pz  O   6 -0.0015  0.0015  0.0000  0.0000  0.0000  0.3420 -0.3116 -0.0290
  S   O   7  0.0429 -0.0039  0.0000  0.0000  0.0000 -0.0222 -0.0885 -0.0047
  Px  O   7 -0.1453  0.0134  0.0000  0.0000  0.0000 -0.0989 -0.4520 -0.0263
  Py  O   7  0.0500  0.5433 -0.0050  0.0163  0.5632  0.0000  0.0000 -0.1547
  Pz  O   7  0.0007 -0.0007  0.0009 -0.0855  0.0025  0.0000  0.0000  0.0082
  S   H   8 -0.0163  0.2781  0.0025 -0.0082 -0.2845  0.0300  0.1310 -0.0895
  S   H   9 -0.0668 -0.2705 -0.0025  0.0082  0.2845  0.0300  0.1310  0.0739
  S   H  10  0.0668  0.2705 -0.0025  0.0082  0.2845  0.0300  0.1310 -0.0739
  S   H  11  0.0163 -0.2781  0.0025 -0.0082 -0.2845  0.0300  0.1310  0.0895
  S   H  12  0.2747 -0.0257  0.0028 -0.2845  0.0082  0.0984 -0.0914  0.0049
  S   H  13 -0.2738  0.0248 -0.0028  0.2845 -0.0082  0.0984 -0.0914  0.0123
  S   H  14 -0.2747  0.0257  0.0028 -0.2845  0.0082  0.0984 -0.0914 -0.0049
  S   H  15  0.2738 -0.0248 -0.0028  0.2845 -0.0082  0.0984 -0.0914 -0.0123
  S   H  16 -0.0067 -0.0387 -0.2846 -0.0029 -0.0025 -0.1284 -0.0395 -0.1672
  S   H  17 -0.0010 -0.0443  0.2846  0.0029  0.0025 -0.1284 -0.0395 -0.1754
  S   H  18  0.0067  0.0387 -0.2846 -0.0029 -0.0025 -0.1284 -0.0395  0.1672
  S   H  19  0.0010  0.0443  0.2846  0.0029  0.0025 -0.1284 -0.0395  0.1754


   Root No.    17      18      19      20      21      22      23      24

              3tu     3tu     2tg     2tg     2tg     4tu     4tu     4tu  

            -27.685 -27.685 -25.772 -25.772 -25.772 -25.548 -25.548 -25.548
  
  S  Ti   1  0.0000  0.0000  0.0000  0.0000  0.0000  0.0000  0.0000  0.0000
  Px Ti   1  0.0686  0.2341  0.0000  0.0000  0.0000 -0.0697 -0.0593 -0.0426
  Py Ti   1 -0.0149 -0.0072  0.0000  0.0000  0.0000  0.0728 -0.0606 -0.0348
  Pz Ti   1  0.2339 -0.0691  0.0000  0.0000  0.0000  0.0052  0.0547 -0.0846
  x2 Ti   1  0.0000  0.0000  0.0000  0.0000  0.0000  0.0000  0.0000  0.0000
  xz Ti   1  0.0000  0.0000  0.0420  0.1107 -0.2442  0.0000  0.0000  0.0000
  z2 Ti   1  0.0000  0.0000  0.0000  0.0000  0.0000  0.0000  0.0000  0.0000
  yz Ti   1  0.0000  0.0000 -0.0711 -0.2338 -0.1181  0.0000  0.0000  0.0000
  xy Ti   1  0.0000  0.0000 -0.2585  0.0822 -0.0072  0.0000  0.0000  0.0000
  S   O   2  0.0291  0.0995  0.0000  0.0000  0.0000  0.0679  0.0578  0.0415
  Px  O   2 -0.1629 -0.5559  0.0000  0.0000  0.0000 -0.1161 -0.0987 -0.0709
  Py  O   2  0.0094  0.0046  0.0887 -0.0282  0.0025 -0.0263  0.0219  0.0126
  Pz  O   2  0.1565 -0.0463  0.1038  0.2735 -0.6037  0.0342  0.3622 -0.5602
  S   O   3 -0.0063 -0.0031  0.0000  0.0000  0.0000 -0.0710  0.0591  0.0339
  Px  O   3  0.0459  0.1566 -0.6391  0.2032 -0.0178 -0.4613 -0.3923 -0.2818
  Py  O   3  0.0353  0.0171  0.0000  0.0000  0.0000  0.1212 -0.1010 -0.0579
  Pz  O   3 -0.1485  0.0439  0.0244  0.0802  0.0405 -0.0019 -0.0198  0.0306
  S   O   4 -0.0994  0.0294  0.0000  0.0000  0.0000  0.0050  0.0533 -0.0825
  Px  O   4 -0.0436 -0.1487  0.0144  0.0380 -0.0838  0.0252  0.0214  0.0154
  Py  O   4 -0.0099 -0.0048  0.1757  0.5778  0.2920  0.4818 -0.4013 -0.2301
  Pz  O   4 -0.5554  0.1641  0.0000  0.0000  0.0000  0.0086  0.0911 -0.1409
  S   O   5  0.0063  0.0031  0.0000  0.0000  0.0000  0.0710 -0.0591 -0.0339
  Px  O   5  0.0459  0.1566  0.6391 -0.2032  0.0178 -0.4613 -0.3923 -0.2818
  Py  O   5  0.0353  0.0171  0.0000  0.0000  0.0000  0.1212 -0.1010 -0.0579
  Pz  O   5 -0.1485  0.0439 -0.0244 -0.0802 -0.0405 -0.0019 -0.0198  0.0306
  S   O   6  0.0994 -0.0294  0.0000  0.0000  0.0000 -0.0050 -0.0533  0.0825
  Px  O   6 -0.0436 -0.1487 -0.0144 -0.0380  0.0838  0.0252  0.0214  0.0154
  Py  O   6 -0.0099 -0.0048 -0.1757 -0.5778 -0.2920  0.4818 -0.4013 -0.2301
  Pz  O   6 -0.5554  0.1641  0.0000  0.0000  0.0000  0.0086  0.0911 -0.1409
  S   O   7 -0.0291 -0.0995  0.0000  0.0000  0.0000 -0.0679 -0.0578 -0.0415
  Px  O   7 -0.1629 -0.5559  0.0000  0.0000  0.0000 -0.1161 -0.0987 -0.0709
  Py  O   7  0.0094  0.0046 -0.0887  0.0282 -0.0025 -0.0263  0.0219  0.0126
  Pz  O   7  0.1565 -0.0463 -0.1038 -0.2735  0.6037  0.0342  0.3622 -0.5602
  S   H   8 -0.0433 -0.1622  0.0450 -0.0143  0.0013 -0.0600 -0.0269 -0.0211
  S   H   9 -0.0532 -0.1670 -0.0450  0.0143 -0.0013 -0.0314 -0.0508 -0.0348
  S   H  10  0.0532  0.1670 -0.0450  0.0143 -0.0013  0.0314  0.0508  0.0348
  S   H  11  0.0433  0.1622  0.0450 -0.0143  0.0013  0.0600  0.0269  0.0211
  S   H  12  0.1414 -0.1271  0.0073  0.0193 -0.0426  0.0103 -0.0242  0.0639
  S   H  13  0.1875  0.0299 -0.0073 -0.0193  0.0426 -0.0171 -0.0475  0.0471
  S   H  14 -0.1414  0.1271  0.0073  0.0193 -0.0426 -0.0103  0.0242 -0.0639
  S   H  15 -0.1875 -0.0299 -0.0073 -0.0193  0.0426  0.0171  0.0475 -0.0471
  S   H  16  0.0889 -0.0181 -0.0124 -0.0407 -0.0206  0.0487 -0.0290 -0.0394
  S   H  17 -0.0680  0.0282  0.0124  0.0407  0.0206  0.0467 -0.0505 -0.0062
  S   H  18 -0.0889  0.0181 -0.0124 -0.0407 -0.0206 -0.0487  0.0290  0.0394
  S   H  19  0.0680 -0.0282  0.0124  0.0407  0.0206 -0.0467  0.0505  0.0062


   Root No.    25      26      27      28      29      30      31      32

              3tg     3tg     3tg     3ag     3eg     3eg     5tu     5tu  

            -15.609 -15.609 -15.609 -14.783 -14.323 -14.323 -11.599 -11.599
  
  S  Ti   1  0.0000  0.0000  0.0000 -0.5257  0.0000  0.0000  0.0000  0.0000
  Px Ti   1  0.0000  0.0000  0.0000  0.0000  0.0000  0.0000 -0.0424  0.0258
  Py Ti   1  0.0000  0.0000  0.0000  0.0000  0.0000  0.0000 -0.5221 -0.0440
  Pz Ti   1  0.0000  0.0000  0.0000  0.0000  0.0000  0.0000 -0.0419  0.5231
  x2 Ti   1  0.0000  0.0000  0.0000  0.0000  0.2672 -0.7755  0.0000  0.0000
  xz Ti   1  0.2610  0.4969  0.7583  0.0000  0.0000  0.0000  0.0000  0.0000
  z2 Ti   1  0.0000  0.0000  0.0000  0.0000  0.7755  0.2672  0.0000  0.0000
  yz Ti   1 -0.3792 -0.6569  0.5610  0.0000  0.0000  0.0000  0.0000  0.0000
  xy Ti   1 -0.8235  0.4600 -0.0180  0.0000  0.0000  0.0000  0.0000  0.0000
  S   O   2  0.0000  0.0000  0.0000  0.1978  0.0340  0.1761  0.0245 -0.0149
  Px  O   2  0.0000  0.0000  0.0000 -0.0545 -0.0237 -0.1467  0.0121 -0.0073
  Py  O   2  0.0225 -0.0126  0.0005  0.0000  0.0000  0.0000  0.0184  0.0016
  Pz  O   2 -0.0568 -0.1082 -0.1651  0.0000  0.0000  0.0000  0.0094 -0.1177
  S   O   3  0.0000  0.0000  0.0000  0.1978  0.1355 -0.1175  0.3010  0.0254
  Px  O   3  0.1793 -0.1002  0.0039  0.0000  0.0000  0.0000  0.0096 -0.0058
  Py  O   3  0.0000  0.0000  0.0000 -0.0545 -0.1152  0.0939  0.1483  0.0125
  Pz  O   3  0.0104  0.0180 -0.0153  0.0000  0.0000  0.0000  0.0015 -0.0185
  S   O   4  0.0000  0.0000  0.0000  0.1978 -0.1695 -0.0586 -0.0241  0.3015
  Px  O   4  0.0071  0.0136  0.0207  0.0000  0.0000  0.0000  0.0015 -0.0009
  Py  O   4 -0.0826 -0.1430  0.1221  0.0000  0.0000  0.0000  0.1175  0.0099
  Pz  O   4  0.0000  0.0000  0.0000  0.0545 -0.1389 -0.0528  0.0119 -0.1485
  S   O   5  0.0000  0.0000  0.0000  0.1978  0.1355 -0.1175 -0.3010 -0.0254
  Px  O   5 -0.1793  0.1002 -0.0039  0.0000  0.0000  0.0000  0.0096 -0.0058
  Py  O   5  0.0000  0.0000  0.0000  0.0545  0.1152 -0.0939  0.1483  0.0125
  Pz  O   5 -0.0104 -0.0180  0.0153  0.0000  0.0000  0.0000  0.0015 -0.0185
  S   O   6  0.0000  0.0000  0.0000  0.1978 -0.1695 -0.0586  0.0241 -0.3015
  Px  O   6 -0.0071 -0.0136 -0.0207  0.0000  0.0000  0.0000  0.0015 -0.0009
  Py  O   6  0.0826  0.1430 -0.1221  0.0000  0.0000  0.0000  0.1175  0.0099
  Pz  O   6  0.0000  0.0000  0.0000 -0.0545  0.1389  0.0528  0.0119 -0.1485
  S   O   7  0.0000  0.0000  0.0000  0.1978  0.0340  0.1761 -0.0245  0.0149
  Px  O   7  0.0000  0.0000  0.0000  0.0545  0.0237  0.1467  0.0121 -0.0073
  Py  O   7 -0.0225  0.0126 -0.0005  0.0000  0.0000  0.0000  0.0184  0.0016
  Pz  O   7  0.0568  0.1082  0.1651  0.0000  0.0000  0.0000  0.0094 -0.1177
  S   H   8  0.0680 -0.0380  0.0015 -0.1981 -0.0334 -0.1622  0.0449  0.0225
  S   H   9 -0.0680  0.0380 -0.0015 -0.1981 -0.0334 -0.1622 -0.0989  0.0103
  S   H  10 -0.0680  0.0380 -0.0015 -0.1981 -0.0334 -0.1622  0.0989 -0.0103
  S   H  11  0.0680 -0.0380  0.0015 -0.1981 -0.0334 -0.1622 -0.0449 -0.0225
  S   H  12  0.0215  0.0410  0.0626 -0.1981  0.1571  0.0521  0.0325 -0.3359
  S   H  13 -0.0215 -0.0410 -0.0626 -0.1981  0.1571  0.0521  0.0208 -0.3288
  S   H  14  0.0215  0.0410  0.0626 -0.1981  0.1571  0.0521 -0.0325  0.3359
  S   H  15 -0.0215 -0.0410 -0.0626 -0.1981  0.1571  0.0521 -0.0208  0.3288
  S   H  16 -0.0313 -0.0542  0.0463 -0.1981 -0.1237  0.1100 -0.3376  0.0440
  S   H  17  0.0313  0.0542 -0.0463 -0.1981 -0.1237  0.1100 -0.3260 -0.1000
  S   H  18 -0.0313 -0.0542  0.0463 -0.1981 -0.1237  0.1100  0.3376 -0.0440
  S   H  19  0.0313  0.0542 -0.0463 -0.1981 -0.1237  0.1100  0.3260  0.1000


   Root No.    33      34      35      36      37      38      39      40

              5tu     4eg     4eg     6tu     6tu     6tu     4tg     4tg  

            -11.599  -9.799  -9.799  -9.321  -9.321  -9.321  -9.129  -9.129
  
  S  Ti   1  0.0000  0.0000  0.0000  0.0000  0.0000  0.0000  0.0000  0.0000
  Px Ti   1 -0.5232  0.0000  0.0000 -0.0111 -0.2385  0.0271  0.0000  0.0000
  Py Ti   1  0.0402  0.0000  0.0000 -0.0018  0.0272  0.2387  0.0000  0.0000
  Pz Ti   1  0.0292  0.0000  0.0000  0.2400 -0.0108  0.0030  0.0000  0.0000
  x2 Ti   1  0.0000  0.2357  0.1804  0.0000  0.0000  0.0000  0.0000  0.0000
  xz Ti   1  0.0000  0.0000  0.0000  0.0000  0.0000  0.0000  0.0010 -0.1002
  z2 Ti   1  0.0000  0.1804 -0.2357  0.0000  0.0000  0.0000  0.0000  0.0000
  yz Ti   1  0.0000  0.0000  0.0000  0.0000  0.0000  0.0000 -0.1002 -0.0010
  xy Ti   1  0.0000  0.0000  0.0000  0.0000  0.0000  0.0000 -0.0007  0.0020
  S   O   2  0.3016  0.0493  0.1283 -0.0011 -0.0243  0.0028  0.0000  0.0000
  Px  O   2  0.1485  0.1104  0.2871 -0.0062 -0.1341  0.0152  0.0000  0.0000
  Py  O   2 -0.0014  0.0000  0.0000 -0.0027  0.0409  0.3589  0.0028 -0.0082
  Pz  O   2 -0.0066  0.0000  0.0000 -0.0256  0.0012 -0.0003 -0.0002  0.0215
  S   O   3 -0.0232 -0.1358 -0.0215 -0.0002  0.0028  0.0244  0.0000  0.0000
  Px  O   3  0.1177  0.0000  0.0000  0.0012  0.0254 -0.0029  0.0001 -0.0004
  Py  O   3 -0.0114 -0.3039 -0.0479 -0.0010  0.0153  0.1343  0.0000  0.0000
  Pz  O   3 -0.0010  0.0000  0.0000  0.3609 -0.0163  0.0046  0.4161  0.0040
  S   O   4  0.0168  0.0865 -0.1069 -0.0245  0.0011 -0.0003  0.0000  0.0000
  Px  O   4  0.0185  0.0000  0.0000 -0.0167 -0.3586  0.0407  0.0040 -0.4160
  Py  O   4 -0.0090  0.0000  0.0000  0.0002 -0.0029 -0.0254 -0.0215 -0.0002
  Pz  O   4 -0.0083 -0.1935  0.2392  0.1350 -0.0061  0.0017  0.0000  0.0000
  S   O   5  0.0232 -0.1358 -0.0215  0.0002 -0.0028 -0.0244  0.0000  0.0000
  Px  O   5  0.1177  0.0000  0.0000  0.0012  0.0254 -0.0029 -0.0001  0.0004
  Py  O   5 -0.0114  0.3039  0.0479 -0.0010  0.0153  0.1343  0.0000  0.0000
  Pz  O   5 -0.0010  0.0000  0.0000  0.3609 -0.0163  0.0046 -0.4161 -0.0040
  S   O   6 -0.0168  0.0865 -0.1069  0.0245 -0.0011  0.0003  0.0000  0.0000
  Px  O   6  0.0185  0.0000  0.0000 -0.0167 -0.3586  0.0407 -0.0040  0.4160
  Py  O   6 -0.0090  0.0000  0.0000  0.0002 -0.0029 -0.0254  0.0215  0.0002
  Pz  O   6 -0.0083  0.1935 -0.2392  0.1350 -0.0061  0.0017  0.0000  0.0000
  S   O   7 -0.3016  0.0493  0.1283  0.0011  0.0243 -0.0028  0.0000  0.0000
  Px  O   7  0.1485 -0.1104 -0.2871 -0.0062 -0.1341  0.0152  0.0000  0.0000
  Py  O   7 -0.0014  0.0000  0.0000 -0.0027  0.0409  0.3589 -0.0028  0.0082
  Pz  O   7 -0.0066  0.0000  0.0000 -0.0256  0.0012 -0.0003  0.0002 -0.0215
  S   H   8 -0.3380 -0.1096 -0.2885  0.0088  0.0860 -0.3912 -0.0027  0.0079
  S   H   9 -0.3269 -0.1096 -0.2885  0.0032  0.1718  0.3620  0.0027 -0.0079
  S   H  10  0.3269 -0.1096 -0.2885 -0.0032 -0.1718 -0.3620  0.0027 -0.0079
  S   H  11  0.3380 -0.1096 -0.2885 -0.0088 -0.0860  0.3912 -0.0027  0.0079
  S   H  12  0.0535 -0.1950  0.2391  0.1472  0.3704 -0.0411 -0.0038  0.4007
  S   H  13 -0.0906 -0.1950  0.2391  0.1122 -0.3821  0.0443  0.0038 -0.4007
  S   H  14 -0.0535 -0.1950  0.2391 -0.1472 -0.3704  0.0411 -0.0038  0.4007
  S   H  15  0.0906 -0.1950  0.2391 -0.1122  0.3821 -0.0443  0.0038 -0.4007
  S   H  16  0.0296  0.3046  0.0493  0.3796 -0.0318 -0.1242  0.4008  0.0039
  S   H  17  0.0215  0.3046  0.0493 -0.3777  0.0024 -0.1338 -0.4008 -0.0039
  S   H  18 -0.0296  0.3046  0.0493 -0.3796  0.0318  0.1242  0.4008  0.0039
  S   H  19 -0.0215  0.3046  0.0493  0.3777 -0.0024  0.1338 -0.4008 -0.0039


   Root No.    41      42      43      44      45

              4tg     7tu     7tu     7tu     4ag  

             -9.129  -8.348  -8.348  -8.348  -7.498
  
  S  Ti   1  0.0000  0.0000  0.0000  0.0000 -0.6139
  Px Ti   1  0.0000 -0.0218  0.1856  0.6737  0.0000
  Py Ti   1  0.0000  0.6923 -0.0859  0.0461  0.0000
  Pz Ti   1  0.0000 -0.0950 -0.6686  0.1811  0.0000
  x2 Ti   1  0.0000  0.0000  0.0000  0.0000  0.0000
  xz Ti   1  0.0020  0.0000  0.0000  0.0000  0.0000
  z2 Ti   1  0.0000  0.0000  0.0000  0.0000  0.0000
  yz Ti   1 -0.0007  0.0000  0.0000  0.0000  0.0000
  xy Ti   1  0.1002  0.0000  0.0000  0.0000  0.0000
  S   O   2  0.0000  0.0008 -0.0065 -0.0235 -0.0234
  Px  O   2  0.0000 -0.0083  0.0710  0.2578 -0.2335
  Py  O   2 -0.4160 -0.2110  0.0262 -0.0140  0.0000
  Pz  O   2 -0.0004  0.0114  0.0805 -0.0218  0.0000
  S   O   3  0.0000 -0.0241  0.0030 -0.0016 -0.0234
  Px  O   3 -0.0215  0.0026 -0.0223 -0.0811  0.0000
  Py  O   3  0.0000  0.2649 -0.0329  0.0176 -0.2335
  Pz  O   3  0.0028  0.0289  0.2037 -0.0552  0.0000
  S   O   4  0.0000 -0.0033 -0.0233  0.0063 -0.0234
  Px  O   4  0.0082  0.0066 -0.0566 -0.2053  0.0000
  Py  O   4 -0.0001 -0.0833  0.0103 -0.0055  0.0000
  Pz  O   4  0.0000 -0.0363 -0.2558  0.0693  0.2335
  S   O   5  0.0000  0.0241 -0.0030  0.0016 -0.0234
  Px  O   5  0.0215  0.0026 -0.0223 -0.0811  0.0000
  Py  O   5  0.0000  0.2649 -0.0329  0.0176  0.2335
  Pz  O   5 -0.0028  0.0289  0.2037 -0.0552  0.0000
  S   O   6  0.0000  0.0033  0.0233 -0.0063 -0.0234
  Px  O   6 -0.0082  0.0066 -0.0566 -0.2053  0.0000
  Py  O   6  0.0001 -0.0833  0.0103 -0.0055  0.0000
  Pz  O   6  0.0000 -0.0363 -0.2558  0.0693 -0.2335
  S   O   7  0.0000 -0.0008  0.0065  0.0235 -0.0234
  Px  O   7  0.0000 -0.0083  0.0710  0.2578  0.2335
  Py  O   7  0.4160 -0.2110  0.0262 -0.0140  0.0000
  Pz  O   7  0.0004  0.0114  0.0805 -0.0218  0.0000
  S   H   8  0.4008  0.1392 -0.0744 -0.2014  0.1562
  S   H   9 -0.4008 -0.1256 -0.0415 -0.2191  0.1562
  S   H  10 -0.4008  0.1256  0.0415  0.2191  0.1562
  S   H  11  0.4008 -0.1392  0.0744  0.2014  0.1562
  S   H  12 -0.0079 -0.0338 -0.1731  0.1854  0.1562
  S   H  13  0.0079 -0.0255 -0.2441 -0.0724  0.1562
  S   H  14 -0.0079  0.0338  0.1731 -0.1854  0.1562
  S   H  15  0.0079  0.0255  0.2441  0.0724  0.1562
  S   H  16  0.0027 -0.1979  0.1547 -0.0490  0.1562
  S   H  17 -0.0027 -0.2342 -0.1011  0.0203  0.1562
  S   H  18  0.0027  0.1979 -0.1547  0.0490  0.1562
  S   H  19 -0.0027  0.2342  0.1011 -0.0203  0.1562


              NET ATOMIC CHARGES AND DIPOLE CONTRIBUTIONS

  ATOM NO.   TYPE          CHARGE      No. of ELECS.   s-Pop       p-Pop       d-Pop       
    1         Ti          -0.203576        4.2036     0.69350     1.06388     2.44620
    2          O          -0.245291        6.2453     1.63251     4.61278
    3          O          -0.245291        6.2453     1.63251     4.61278
    4          O          -0.245291        6.2453     1.63251     4.61278
    5          O          -0.245291        6.2453     1.63251     4.61278
    6          O          -0.245291        6.2453     1.63251     4.61278
    7          O          -0.245291        6.2453     1.63251     4.61278
    8          H           0.389610        0.6104     0.61039
    9          H           0.389610        0.6104     0.61039
   10          H           0.389610        0.6104     0.61039
   11          H           0.389610        0.6104     0.61039
   12          H           0.389610        0.6104     0.61039
   13          H           0.389610        0.6104     0.61039
   14          H           0.389610        0.6104     0.61039
   15          H           0.389610        0.6104     0.61039
   16          H           0.389610        0.6104     0.61039
   17          H           0.389610        0.6104     0.61039
   18          H           0.389610        0.6104     0.61039
   19          H           0.389610        0.6104     0.61039
 DIPOLE           X         Y         Z       TOTAL
 POINT-CHG.     0.000     0.000     0.000     0.000
 HYBRID         0.000     0.000     0.000     0.000
 SUM            0.000     0.000     0.000     0.000


          CARTESIAN COORDINATES 

    NO.       ATOM               X         Y         Z

     1        Ti                  0.0000    0.0000    0.0000
     2         O                  1.9696    0.0000    0.0000
     3         O                  0.0000    1.9696    0.0000
     4         O                  0.0000    0.0000   -1.9696
     5         O                  0.0000   -1.9696    0.0000
     6         O                  0.0000    0.0000    1.9696
     7         O                 -1.9696    0.0000    0.0000
     8         H                  2.5065    0.7900    0.0000
     9         H                  2.5065   -0.7900    0.0000
    10         H                 -2.5065    0.7900    0.0000
    11         H                 -2.5065   -0.7900    0.0000
    12         H                  0.7900    0.0000   -2.5065
    13         H                 -0.7900    0.0000   -2.5065
    14         H                 -0.7900    0.0000    2.5065
    15         H                  0.7900    0.0000    2.5065
    16         H                  0.0000    2.5065   -0.7900
    17         H                  0.0000    2.5065    0.7900
    18         H                  0.0000   -2.5065    0.7900
    19         H                  0.0000   -2.5065   -0.7900


          ATOMIC ORBITAL ELECTRON POPULATIONS

   0.69350   0.35463   0.35463   0.35463   0.47832   0.49652   0.47832   0.49652
   0.49652   1.63251   1.42739   1.30008   1.88531   1.63251   1.88531   1.42739
   1.30008   1.63251   1.30008   1.88531   1.42739   1.63251   1.88531   1.42739
   1.30008   1.63251   1.30008   1.88531   1.42739   1.63251   1.42739   1.30008
   1.88531   0.61039   0.61039   0.61039   0.61039   0.61039   0.61039   0.61039
   0.61039   0.61039   0.61039   0.61039   0.61039


          MULTI-ELECTRON CONFIGURATION INTERACTION CALCULATION


          COMPONENT OF SPIN  =  0.5


           NO OF CONFIGURATIONS CONSIDERED =    6

 CONFIGURATIONS CONSIDERED IN C.I.      
 M.O. NUMBER :        25  26  27  28  29  30
          ENERGY

             1         1   0   0   0   0   0
         -4.4959       0   0   0   0   0   0

             2         0   1   0   0   0   0
         -4.4959       0   0   0   0   0   0

             3         0   0   1   0   0   0
         -4.4959       0   0   0   0   0   0

             4         0   0   0   1   0   0
         -1.8150       0   0   0   0   0   0

             5         0   0   0   0   1   0
         -2.6429       0   0   0   0   0   0

             6         0   0   0   0   0   1
         -2.6429       0   0   0   0   0   0


 DIAGONAL OF C.I. MATRIX
    -4.495936    -4.495936    -4.495936    -1.814955    -2.642891
    -2.642891

  STATE       ENERGY (EV)        Q.N.  SPIN   SYMMETRY     POLARIZATION
         ABSOLUTE    RELATIVE                            X       Y       Z

    1*  -4.495936    0.000000     1   DOUBLET     Tg  
    4   -2.642891    1.853045     1   DOUBLET     Eg  
    6   -1.814955    2.680981     1   DOUBLET     Ag  



 TOTAL CPU TIME:             2.73 SECONDS

 == MOPAC DONE ==
