 *******************************************************************************
 ** Site#:  181            For non-commercial use only         Version 7.039W **
 *******************************************************************************
 ** Cite this work as: MOPAC2007, James J. P. Stewart, Stewart Computational  **
 ** Chemistry, Version 7.039W web: HTTP://OpenMOPAC.net   Days remaining: 359 **
 *******************************************************************************
 **                                                                           **
 **                                MOPAC2007                                  **
 **                                                                           **
 *******************************************************************************

                            PM6 CALCULATION RESULTS


 *******************************************************************************
 *  CALCULATION DONE:                                Mon Feb 12 16:52:01 2007  *
 *  TRIPLET  - SPIN STATE DEFINED AS A TRIPLET
 *
 *
 *
 *                 CHARGE ON SYSTEM =     1
 *
 *
 *
 *  OPEN(N,N)- THERE ARE10 ELECTRONS IN 6 LEVELS
 *  ROOT     - IN A C.I. CALCULATION, ROOT 1 TO BE OPTIMIZED.
 *  PULAY    - PULAY'S METHOD TO BE USED IN SCF
 *  T=       - A TIME OF 172800.0 SECONDS REQUESTED
 *  DUMP=N   - RESTART FILE WRITTEN EVERY  7200.000 SECONDS
 *  MECI     - M.E.C.I. WORKING TO BE PRINTED
 *******************************************************************************
  OPEN(10,6) MECI CHARGE=1 pulay root=1F(g) triplet
 Copper(+) 3Fg 3d(8)4s(2)
 H=203.1 HR=NIST ROOT=1,3,F(G)
   ATOM   CHEMICAL            X               Y              Z
 NUMBER    SYMBOL        (ANGSTROMS)     (ANGSTROMS)    (ANGSTROMS)
 
     1      Cu          0.0000000       0.000000       0.000000   
 


          CARTESIAN COORDINATES 

    NO.       ATOM         X         Y         Z

     1        Cu        0.0000    0.0000    0.0000

 Cu (PM6): J. J. P. Stewart  J. Mol. Mod. (to be submitted)!

           Empirical Formula: Cu 



      MOLECULAR POINT GROUP   :   R3  

      THERE ARE    0 DOUBLY FILLED LEVELS


      RHF CALCULATION, NO. OF DOUBLY OCCUPIED LEVELS =    0


                       NO. OF LEVELS WITH OCCUPANCY 1.667  =  6

 -------------------------------------------------------------------------------
  OPEN(10,6) MECI CHARGE=1 pulay root=1F(g) triplet
 Copper(+) 3Fg 3d(8)4s(2)
 H=203.1 HR=NIST ROOT=1,3,F(G)


     1SCF WAS SPECIFIED, SO BFGS WAS NOT USED                 
     SCF FIELD WAS ACHIEVED                                   


                               PM6     CALCULATION
                                                       MOPAC2007 (Version: 7.039W)
                                                       Mon Feb 12 16:52:01 2007
                                                       No. of days left = 359




          FINAL HEAT OF FORMATION =        324.74754 KCAL =    1358.74371 KJ


          TOTAL ENERGY            =       -648.53374 EV  STATE:   1 TRIPLET D(g)
          ELECTRONIC ENERGY       =       -648.53374 EV  POINT GROUP:     R3  
          CORE-CORE REPULSION     =          0.00000 EV

          NO. OF FILLED LEVELS    =          0
          AND NO. OF OPEN LEVELS  =          6
          MOLECULAR WEIGHT        =         63.546


          SCF CALCULATIONS        =          1
          COMPUTATION TIME        =          0.000 SECONDS




   ATOM   CHEMICAL            X               Y              Z
 NUMBER    SYMBOL        (ANGSTROMS)     (ANGSTROMS)    (ANGSTROMS)
 
     1      Cu          0.0000000       0.000000       0.000000   

           Empirical Formula: Cu 



      MOLECULAR POINT GROUP   :   R3  


                  EIGENVALUES

 -19.99618 -19.99618 -19.99618 -19.99618 -19.99618 -15.88563  -8.93947  -8.93947
  -8.93947


              NET ATOMIC CHARGES AND DIPOLE CONTRIBUTIONS

  ATOM NO.   TYPE          CHARGE      No. of ELECS.   s-Pop       p-Pop       d-Pop       
    1         Cu           1.000000       10.0000     1.00000     0.00000     9.00000
 DIPOLE           X         Y         Z       TOTAL
 POINT-CHG.     0.000     0.000     0.000     0.000
 HYBRID         0.000     0.000     0.000     0.000
 SUM            0.000     0.000     0.000     0.000


          CARTESIAN COORDINATES 

    NO.       ATOM               X         Y         Z

     1        Cu                  0.0000    0.0000    0.0000


          ATOMIC ORBITAL ELECTRON POPULATIONS

   1.00000   0.00000   0.00000   0.00000   1.80000   1.80000   1.80000   1.80000
   1.80000


          MULTI-ELECTRON CONFIGURATION INTERACTION CALCULATION


          COMPONENT OF SPIN  =  1.0


           NO OF CONFIGURATIONS CONSIDERED =   15

 CONFIGURATIONS CONSIDERED IN C.I.      
 M.O. NUMBER :         1   2   3   4   5   6
          ENERGY

             1         1   1   1   1   1   1
        -11.5640       1   1   1   1   0   0

             2         1   1   1   1   1   1
        -11.5640       1   1   1   0   1   0

             3         1   1   1   1   1   1
         -7.3482       1   1   1   0   0   1

             4         1   1   1   1   1   1
        -11.5640       1   1   0   1   1   0

             5         1   1   1   1   1   1
         -7.3195       1   1   0   1   0   1

             6         1   1   1   1   1   1
         -6.6237       1   1   0   0   1   1

             7         1   1   1   1   1   1
        -11.5640       1   0   1   1   1   0

             8         1   1   1   1   1   1
         -6.9313       1   0   1   1   0   1

             9         1   1   1   1   1   1
         -7.1498       1   0   1   0   1   1

            10         1   1   1   1   1   1
         -7.2715       1   0   0   1   1   1

            11         1   1   1   1   1   1
        -11.5640       0   1   1   1   1   0

            12         1   1   1   1   1   1
         -6.8304       0   1   1   1   0   1

            13         1   1   1   1   1   1
         -7.3076       0   1   1   0   1   1

            14         1   1   1   1   1   1
         -7.2147       0   1   0   1   1   1

            15         1   1   1   1   1   1
         -7.0767       0   0   1   1   1   1


 DIAGONAL OF C.I. MATRIX
   -11.563957   -11.563957    -7.348153   -11.563957    -7.319452
    -6.623687   -11.563957    -6.931299    -7.149839    -7.271454
   -11.563957    -6.830352    -7.307577    -7.214663    -7.076665

  STATE       ENERGY (EV)        Q.N.  SPIN   SYMMETRY     POLARIZATION
         ABSOLUTE     RELATIVE                            X       Y       Z

    1+  -11.563957    0.000000     1+  TRIPLET     D(g)
    6    -7.420921    4.143036     1   TRIPLET     F(g)
   13    -6.375566    5.188391     1   TRIPLET     P(g)
 'RELATIVE ENERGY' Is relative to the lowest state calculated.
 This may or may not be the ground state.
 The "+" symbol indicates the root used.



 TOTAL CPU TIME:             0.00 SECONDS

 == MOPAC DONE ==
